VARIABLES= X,Y,U,V,Vel,R
ZONE I=32,J=44 F=POINT
15.000000 15.000000 0.473018 0.444793 0.649297 0.909449
30.000000 15.000000 0.381624 0.452051 0.591597 0.895381
45.000000 15.000000 0.435707 0.442620 0.621090 0.879446
60.000000 15.000000 0.455557 0.446445 0.637844 0.893434
75.000000 15.000000 0.426682 0.456490 0.624852 0.906140
90.000000 15.000000 0.342029 0.463850 0.576316 0.921510
105.000000 15.000000 0.395186 0.462709 0.608500 0.919164
120.000000 15.000000 0.390051 0.458754 0.602159 0.923672
135.000000 15.000000 0.365066 0.449758 0.579271 0.926273
150.000000 15.000000 0.358459 0.420586 0.552617 0.926977
165.000000 15.000000 0.343413 0.406544 0.532175 0.942064
180.000000 15.000000 0.350735 0.414360 0.542872 0.943910
195.000000 15.000000 0.336581 0.414557 0.533989 0.933387
210.000000 15.000000 0.360519 0.409155 0.545328 0.935810
225.000000 15.000000 0.498644 0.427014 0.656496 0.915566
240.000000 15.000000 0.428867 0.417240 0.598344 0.930870
255.000000 15.000000 0.322376 0.391115 0.506851 0.943987
270.000000 15.000000 0.332024 0.382255 0.506319 0.935253
285.000000 15.000000 0.426480 0.389216 0.577386 0.922280
300.000000 15.000000 0.514825 0.404832 0.654930 0.910458
315.000000 15.000000 0.660374 0.402879 0.773567 0.940974
330.000000 15.000000 0.757758 0.390706 0.852554 0.966503
345.000000 15.000000 0.798131 0.398187 0.891945 0.959514
360.000000 15.000000 0.828114 0.404581 0.921661 0.959490
375.000000 15.000000 0.917396 0.412053 1.005686 0.965531
390.000000 15.000000 0.978527 0.426309 1.067359 0.970248
405.000000 15.000000 0.894345 0.415424 0.986118 0.966067
420.000000 15.000000 0.862088 0.409879 0.954567 0.960654
435.000000 15.000000 0.870176 0.418060 0.965391 0.957152
450.000000 15.000000 0.905654 0.425863 1.000784 0.961078
465.000000 15.000000 0.947989 0.422826 1.038010 0.944489
480.000000 15.000000 0.976218 0.435989 1.069153 0.936815
15.000000 30.000000 0.489781 0.195799 0.527468 0.895603
30.000000 30.000000 0.446706 0.271210 0.522591 0.898242
45.000000 30.000000 0.470453 0.241358 0.528753 0.899415
60.000000 30.000000 0.474124 0.230730 0.527286 0.900522
75.000000 30.000000 0.390530 0.207620 0.442290 0.905340
90.000000 30.000000 0.364737 0.233495 0.433074 0.914326
105.000000 30.000000 0.436437 0.365561 0.569308 0.895898
120.000000 30.000000 0.477017 0.442435 0.650610 0.893014
135.000000 30.000000 0.339722 0.294715 0.449742 0.921311
150.000000 30.000000 0.287698 0.093667 0.302561 0.945397
165.000000 30.000000 0.276190 0.078873 0.287231 0.943742
180.000000 30.000000 0.276293 0.078424 0.287208 0.950148
195.000000 30.000000 0.254839 0.041568 0.258207 0.951234
210.000000 30.000000 0.263497 0.018816 0.264168 0.938964
225.000000 30.000000 0.353018 0.011804 0.353215 0.925067
240.000000 30.000000 0.367617 -0.004263 0.367642 0.934305
255.000000 30.000000 0.335728 0.006512 0.335791 0.937000
270.000000 30.000000 0.401168 -0.006587 0.401222 0.928770
285.000000 30.000000 0.479529 -0.014284 0.479742 0.918085
300.000000 30.000000 0.553478 -0.041862 0.555059 0.913685
315.000000 30.000000 0.628759 -0.040222 0.630044 0.930702
330.000000 30.000000 0.748664 -0.043739 0.749941 0.956099
345.000000 30.000000 0.819163 -0.053838 0.820930 0.965561
360.000000 30.000000 0.877288 -0.021543 0.877553 0.967274
375.000000 30.000000 0.935616 0.024875 0.935947 0.969567
390.000000 30.000000 0.934933 0.036192 0.935633 0.971964
405.000000 30.000000 0.934174 0.003073 0.934179 0.971702
420.000000 30.000000 0.957913 0.022891 0.958187 0.971781
435.000000 30.000000 1.028813 0.102782 1.033935 0.965287
450.000000 30.000000 1.025315 0.109819 1.031180 0.965166
465.000000 30.000000 1.038859 0.111980 1.044877 0.952570
480.000000 30.000000 1.016568 0.202521 1.036545 0.948972
15.000000 45.000000 0.535529 0.184110 0.566293 0.898456
30.000000 45.000000 0.514774 0.181530 0.545844 0.906548
45.000000 45.000000 0.527436 0.101707 0.537153 0.917832
60.000000 45.000000 0.489410 0.215900 0.534916 0.900219
75.000000 45.000000 0.425698 0.215822 0.477282 0.892006
90.000000 45.000000 0.397968 0.249564 0.469745 0.894418
105.000000 45.000000 0.380450 0.364602 0.526950 0.907270
120.000000 45.000000 0.409273 0.475941 0.627713 0.907493
135.000000 45.000000 0.329754 0.328894 0.465735 0.915993
150.000000 45.000000 0.286759 0.181937 0.339606 0.930039
165.000000 45.000000 0.289537 0.153942 0.327917 0.929497
180.000000 45.000000 0.292216 0.143486 0.325544 0.938483
195.000000 45.000000 0.264236 0.083838 0.277218 0.945528
210.000000 45.000000 0.258917 0.056503 0.265011 0.939241
225.000000 45.000000 0.328333 0.010373 0.328497 0.926766
240.000000 45.000000 0.340224 -0.018832 0.340744 0.934490
255.000000 45.000000 0.311908 -0.003436 0.311927 0.942959
270.000000 45.000000 0.345110 -0.007627 0.345194 0.939729
285.000000 45.000000 0.403720 0.023253 0.404389 0.928542
300.000000 45.000000 0.457398 0.007938 0.457467 0.908906
315.000000 45.000000 0.518722 -0.078417 0.524616 0.902925
330.000000 45.000000 0.671249 -0.083306 0.676398 0.936015
345.000000 45.000000 0.836177 -0.078784 0.839880 0.964573
360.000000 45.000000 0.909279 -0.049299 0.910615 0.976064
375.000000 45.000000 0.913357 -0.017337 0.913522 0.977404
390.000000 45.000000 0.892856 -0.005851 0.892876 0.974841
405.000000 45.000000 0.974013 -0.000460 0.974013 0.975771
420.000000 45.000000 1.054883 0.059725 1.056573 0.975053
435.000000 45.000000 1.107913 0.114326 1.113796 0.969636
450.000000 45.000000 1.070941 0.090339 1.074744 0.966857
465.000000 45.000000 1.084958 0.107287 1.090249 0.951999
480.000000 45.000000 1.069111 0.241071 1.095953 0.940582
15.000000 60.000000 0.561240 0.222586 0.603767 0.900650
30.000000 60.000000 0.549488 0.210692 0.588496 0.895059
45.000000 60.000000 0.517819 0.171796 0.545574 0.886850
60.000000 60.000000 0.520595 0.221703 0.565837 0.873001
75.000000 60.000000 0.603385 0.262283 0.657925 0.882557
90.000000 60.000000 0.501297 0.317976 0.593639 0.867943
105.000000 60.000000 0.385999 0.283398 0.478863 0.908693
120.000000 60.000000 0.317101 0.302679 0.438369 0.929791
135.000000 60.000000 0.305148 0.313309 0.437353 0.925123
150.000000 60.000000 0.293543 0.221240 0.367579 0.926525
165.000000 60.000000 0.315633 0.109738 0.334165 0.932597
180.000000 60.000000 0.326551 0.085553 0.337572 0.941065
195.000000 60.000000 0.288012 0.062010 0.294612 0.939617
210.000000 60.000000 0.289693 0.072438 0.298613 0.943062
225.000000 60.000000 0.316452 0.059593 0.322014 0.937982
240.000000 60.000000 0.345063 -0.043509 0.347796 0.927598
255.000000 60.000000 0.337594 -0.057621 0.342476 0.935337
270.000000 60.000000 0.315456 -0.089538 0.327917 0.940300
285.000000 60.000000 0.354240 -0.052423 0.358098 0.932922
300.000000 60.000000 0.395773 -0.062917 0.400743 0.916849
315.000000 60.000000 0.443374 -0.048981 0.446072 0.912174
330.000000 60.000000 0.565993 -0.126531 0.579964 0.917957
345.000000 60.000000 0.736996 -0.132806 0.748866 0.943600
360.000000 60.000000 0.898219 -0.036618 0.898965 0.969443
375.000000 60.000000 0.918290 -0.010337 0.918348 0.971284
390.000000 60.000000 0.945530 -0.007341 0.945559 0.966209
405.000000 60.000000 1.012403 0.009986 1.012452 0.968280
420.000000 60.000000 1.097884 0.044849 1.098800 0.968266
435.000000 60.000000 1.126408 0.073093 1.128777 0.967820
450.000000 60.000000 1.107596 0.044305 1.108482 0.963122
465.000000 60.000000 1.142091 0.077851 1.144742 0.950389
480.000000 60.000000 1.080511 0.251781 1.109458 0.940496
15.000000 75.000000 0.605937 0.309664 0.680478 0.890554
30.000000 75.000000 0.618210 0.233703 0.660909 0.884159
45.000000 75.000000 0.566718 0.232287 0.612476 0.879956
60.000000 75.000000 0.605446 0.330516 0.689787 0.880803
75.000000 75.000000 0.683178 0.359678 0.772076 0.891737
90.000000 75.000000 0.585110 0.311163 0.662704 0.895415
105.000000 75.000000 0.456861 0.341864 0.570608 0.895815
120.000000 75.000000 0.406812 0.248090 0.476492 0.912360
135.000000 75.000000 0.251730 0.177086 0.307778 0.938134
150.000000 75.000000 0.252858 0.140502 0.289272 0.949507
165.000000 75.000000 0.308473 0.088105 0.320809 0.946402
180.000000 75.000000 0.267789 0.039318 0.270660 0.954978
195.000000 75.000000 0.225093 0.022022 0.226168 0.955537
210.000000 75.000000 0.202971 0.022318 0.204194 0.958722
225.000000 75.000000 0.227557 0.005415 0.227622 0.951345
240.000000 75.000000 0.262918 -0.081521 0.275267 0.938209
255.000000 75.000000 0.307252 -0.134804 0.335524 0.935085
270.000000 75.000000 0.311714 -0.182488 0.361203 0.927925
285.000000 75.000000 0.402139 -0.146095 0.427855 0.909986
300.000000 75.000000 0.437458 -0.130297 0.456450 0.897933
315.000000 75.000000 0.497757 -0.106535 0.509031 0.877766
330.000000 75.000000 0.601570 -0.156993 0.621718 0.901291
345.000000 75.000000 0.676002 -0.138356 0.690015 0.934144
360.000000 75.000000 0.870053 -0.029845 0.870565 0.964073
375.000000 75.000000 0.958925 -0.013902 0.959026 0.969970
390.000000 75.000000 1.024684 -0.008990 1.024723 0.963706
405.000000 75.000000 1.084662 -0.018105 1.084813 0.966083
420.000000 75.000000 1.106918 -0.021052 1.107118 0.967637
435.000000 75.000000 1.155486 -0.016308 1.155601 0.969260
450.000000 75.000000 1.182801 0.021815 1.183002 0.958897
465.000000 75.000000 1.174129 0.113365 1.179589 0.953437
480.000000 75.000000 1.135392 0.195082 1.152029 0.951974
15.000000 90.000000 0.595664 0.266355 0.652504 0.889369
30.000000 90.000000 0.676431 0.284098 0.733669 0.892486
45.000000 90.000000 0.586867 0.220748 0.627011 0.889284
60.000000 90.000000 0.507326 0.360860 0.622575 0.884042
75.000000 90.000000 0.505185 0.398595 0.643498 0.874244
90.000000 90.000000 0.490969 0.434747 0.655787 0.881437
105.000000 90.000000 0.464841 0.363516 0.590103 0.888329
120.000000 90.000000 0.397505 0.248026 0.468537 0.908779
135.000000 90.000000 0.248940 0.178670 0.306422 0.937142
150.000000 90.000000 0.233798 0.160547 0.283614 0.949774
165.000000 90.000000 0.243958 0.128049 0.275522 0.952257
180.000000 90.000000 0.187277 0.035227 0.190561 0.963418
195.000000 90.000000 0.186641 0.030558 0.189126 0.963983
210.000000 90.000000 0.162317 0.018284 0.163344 0.962166
225.000000 90.000000 0.176794 -0.013319 0.177295 0.951360
240.000000 90.000000 0.223946 -0.064842 0.233145 0.948960
255.000000 90.000000 0.247392 -0.136729 0.282662 0.945122
270.000000 90.000000 0.260297 -0.232200 0.348814 0.932210
285.000000 90.000000 0.384706 -0.237902 0.452323 0.896419
300.000000 90.000000 0.459968 -0.245651 0.521455 0.873957
315.000000 90.000000 0.611279 -0.326855 0.693179 0.883207
330.000000 90.000000 0.754977 -0.329208 0.823631 0.906258
345.000000 90.000000 0.804919 -0.230254 0.837205 0.940079
360.000000 90.000000 0.889425 -0.194309 0.910403 0.956607
375.000000 90.000000 0.998512 -0.116205 1.005251 0.969063
390.000000 90.000000 1.111519 -0.095479 1.115612 0.966917
405.000000 90.000000 1.171512 -0.057742 1.172934 0.967239
420.000000 90.000000 1.178999 -0.014397 1.179086 0.964401
435.000000 90.000000 1.225884 0.005336 1.225895 0.959471
450.000000 90.000000 1.260999 0.081389 1.263623 0.940489
465.000000 90.000000 1.274272 0.156049 1.283792 0.935168
480.000000 90.000000 1.206996 0.167536 1.218567 0.941748
15.000000 105.000000 0.628611 0.300830 0.696886 0.898293
30.000000 105.000000 0.753178 0.314421 0.816172 0.912565
45.000000 105.000000 0.704869 0.254585 0.749436 0.902214
60.000000 105.000000 0.477412 0.397132 0.620996 0.858294
75.000000 105.000000 0.383464 0.448591 0.590151 0.871332
90.000000 105.000000 0.375556 0.443281 0.580982 0.897588
105.000000 105.000000 0.433494 0.410557 0.597054 0.890226
120.000000 105.000000 0.374376 0.258104 0.454726 0.908003
135.000000 105.000000 0.215967 0.267476 0.343781 0.928525
150.000000 105.000000 0.167010 0.279952 0.325984 0.936774
165.000000 105.000000 0.121815 0.209729 0.242539 0.953655
180.000000 105.000000 0.082506 0.109634 0.137211 0.967167
195.000000 105.000000 0.104546 0.054117 0.117722 0.969616
210.000000 105.000000 0.158136 -0.016871 0.159033 0.959249
225.000000 105.000000 0.116344 -0.101894 0.154656 0.946208
240.000000 105.000000 0.144649 -0.105936 0.179292 0.950106
255.000000 105.000000 0.191576 -0.158311 0.248523 0.950067
270.000000 105.000000 0.244941 -0.331897 0.412494 0.929158
285.000000 105.000000 0.286044 -0.410725 0.500516 0.892302
300.000000 105.000000 0.455810 -0.463733 0.650239 0.843383
315.000000 105.000000 0.718281 -0.394763 0.819612 0.883108
330.000000 105.000000 0.821503 -0.403242 0.915134 0.904286
345.000000 105.000000 0.882310 -0.377900 0.959833 0.915524
360.000000 105.000000 0.922329 -0.354429 0.988085 0.935274
375.000000 105.000000 0.998989 -0.289945 1.040214 0.944317
390.000000 105.000000 1.138376 -0.157320 1.149195 0.949959
405.000000 105.000000 1.197046 -0.093150 1.200665 0.951520
420.000000 105.000000 1.276292 -0.023447 1.276508 0.940910
435.000000 105.000000 1.311009 0.059166 1.312343 0.935302
450.000000 105.000000 1.306452 0.120996 1.312043 0.919989
465.000000 105.000000 1.391598 0.174227 1.402462 0.905511
480.000000 105.000000 1.289674 0.210348 1.306716 0.904400
15.000000 120.000000 0.793526 0.320760 0.855904 0.906717
30.000000 120.000000 0.756262 0.379058 0.845942 0.895607
45.000000 120.000000 0.681454 0.344393 0.763535 0.890539
60.000000 120.000000 0.536624 0.409409 0.674968 0.859140
75.000000 120.000000 0.414870 0.501234 0.650656 0.861923
90.000000 120.000000 0.291894 0.537359 0.611520 0.904068
105.000000 120.000000 0.303260 0.504693 0.588797 0.892481
120.000000 120.000000 0.300290 0.367370 0.474484 0.916546
135.000000 120.000000 0.064458 0.336308 0.342429 0.938925
150.000000 120.000000 0.038851 0.359940 0.362031 0.936767
165.000000 120.000000 0.036567 0.274597 0.277021 0.955351
180.000000 120.000000 0.016866 0.156805 0.157710 0.970469
195.000000 120.000000 0.049409 0.051230 0.071174 0.976702
210.000000 120.000000 0.090087 -0.023554 0.093116 0.970920
225.000000 120.000000 0.043446 -0.161882 0.167611 0.957772
240.000000 120.000000 0.076552 -0.219469 0.232437 0.951437
255.000000 120.000000 0.122431 -0.230371 0.260884 0.953286
270.000000 120.000000 0.226808 -0.355770 0.421917 0.929698
285.000000 120.000000 0.312067 -0.522734 0.608800 0.883818
300.000000 120.000000 0.485330 -0.562550 0.742972 0.839468
315.000000 120.000000 0.743472 -0.469424 0.879267 0.871488
330.000000 120.000000 0.910662 -0.399029 0.994248 0.916368
345.000000 120.000000 0.928808 -0.421810 1.020102 0.914813
360.000000 120.000000 0.958038 -0.355697 1.021937 0.927006
375.000000 120.000000 1.064724 -0.340600 1.117875 0.913870
390.000000 120.000000 1.233138 -0.262670 1.260803 0.919697
405.000000 120.000000 1.334324 -0.171863 1.345347 0.918935
420.000000 120.000000 1.442385 -0.078148 1.444500 0.912655
435.000000 120.000000 1.405787 0.051369 1.406725 0.915343
450.000000 120.000000 1.414419 0.108829 1.418600 0.902308
465.000000 120.000000 1.448444 0.135493 1.454767 0.887539
480.000000 120.000000 1.412081 0.233026 1.431179 0.858688
15.000000 135.000000 0.885757 0.348056 0.951687 0.896644
30.000000 135.000000 0.699529 0.548011 0.888626 0.866999
45.000000 135.000000 0.634367 0.516855 0.818267 0.866766
60.000000 135.000000 0.575659 0.446418 0.728473 0.864207
75.000000 135.000000 0.395200 0.569734 0.693383 0.880606
90.000000 135.000000 0.290733 0.609131 0.674956 0.912864
105.000000 135.000000 0.252269 0.551689 0.606630 0.907559
120.000000 135.000000 0.201106 0.472827 0.513818 0.915609
135.000000 135.000000 0.065725 0.444340 0.449175 0.919184
150.000000 135.000000 0.004602 0.426410 0.426435 0.925221
165.000000 135.000000 -0.047436 0.389336 0.392215 0.937624
180.000000 135.000000 -0.045075 0.174286 0.180020 0.957888
195.000000 135.000000 -0.083965 0.021339 0.086634 0.968280
210.000000 135.000000 -0.136892 -0.044474 0.143935 0.964851
225.000000 135.000000 -0.100182 -0.199605 0.223336 0.954555
240.000000 135.000000 -0.009544 -0.328849 0.328987 0.942580
255.000000 135.000000 0.043663 -0.415824 0.418110 0.925280
270.000000 135.000000 0.189909 -0.404601 0.446954 0.918611
285.000000 135.000000 0.260694 -0.538694 0.598458 0.891139
300.000000 135.000000 0.501746 -0.773949 0.922359 0.882642
315.000000 135.000000 0.618959 -0.680444 0.919845 0.898302
330.000000 135.000000 0.767101 -0.606416 0.977847 0.910685
345.000000 135.000000 0.993484 -0.645807 1.184938 0.930252
360.000000 135.000000 1.024463 -0.484053 1.133063 0.900212
375.000000 135.000000 1.132701 -0.454067 1.220323 0.884489
390.000000 135.000000 1.323813 -0.416173 1.387689 0.902283
405.000000 135.000000 1.495977 -0.308074 1.527369 0.887261
420.000000 135.000000 1.674270 -0.115701 1.678263 0.927397
435.000000 135.000000 1.698826 -0.030986 1.699109 0.929648
450.000000 135.000000 1.673112 0.071957 1.674659 0.932768
465.000000 135.000000 1.602790 0.236572 1.620155 0.903900
480.000000 135.000000 1.590272 0.349289 1.628179 0.870092
15.000000 150.000000 0.834077 0.464376 0.954636 0.888600
30.000000 150.000000 0.698904 0.605318 0.924596 0.900841
45.000000 150.000000 0.723852 0.644015 0.968874 0.917682
60.000000 150.000000 0.631662 0.631800 0.893402 0.897310
75.000000 150.000000 0.411478 0.767628 0.870957 0.896764
90.000000 150.000000 0.302493 0.691279 0.754565 0.909915
105.000000 150.000000 0.273022 0.557943 0.621161 0.904144
120.000000 150.000000 0.166215 0.574733 0.598285 0.907888
135.000000 150.000000 -0.035193 0.501798 0.503031 0.891602
150.000000 150.000000 -0.090437 0.425929 0.435424 0.909211
165.000000 150.000000 -0.167335 0.450040 0.480142 0.923952
180.000000 150.000000 -0.139424 0.230352 0.269260 0.948803
195.000000 150.000000 -0.211486 0.009274 0.211689 0.956658
210.000000 150.000000 -0.273553 -0.039851 0.276440 0.944391
225.000000 150.000000 -0.215034 -0.244408 0.325538 0.929095
240.000000 150.000000 -0.147605 -0.415323 0.440773 0.918323
255.000000 150.000000 -0.043203 -0.527752 0.529518 0.900702
270.000000 150.000000 0.044092 -0.564589 0.566308 0.903577
285.000000 150.000000 0.204031 -0.625359 0.657801 0.913480
300.000000 150.000000 0.427314 -0.721805 0.838809 0.915409
315.000000 150.000000 0.561761 -0.872276 1.037517 0.908135
330.000000 150.000000 0.725746 -0.852633 1.119684 0.919436
345.000000 150.000000 0.991867 -0.838446 1.298765 0.952865
360.000000 150.000000 1.155257 -0.760520 1.383116 0.934550
375.000000 150.000000 1.309786 -0.713056 1.491304 0.892851
390.000000 150.000000 1.354053 -0.628239 1.492696 0.887208
405.000000 150.000000 1.653678 -0.321885 1.684714 0.903671
420.000000 150.000000 1.801810 -0.175723 1.810359 0.932942
435.000000 150.000000 1.821302 -0.056238 1.822170 0.946629
450.000000 150.000000 1.786178 0.131039 1.790979 0.947698
465.000000 150.000000 1.777120 0.282121 1.799374 0.928409
480.000000 150.000000 1.793101 0.350107 1.826961 0.908096
15.000000 165.000000 0.898579 0.428813 0.995653 0.892432
30.000000 165.000000 0.823466 0.576527 1.005226 0.896696
45.000000 165.000000 0.760679 0.686297 1.024517 0.921870
60.000000 165.000000 0.668782 0.738648 0.996429 0.913340
75.000000 165.000000 0.452428 0.934324 1.038101 0.901965
90.000000 165.000000 0.350946 0.836292 0.906944 0.920088
105.000000 165.000000 0.300097 0.772265 0.828524 0.930810
120.000000 165.000000 0.129632 0.715306 0.726957 0.935744
135.000000 165.000000 -0.037485 0.480153 0.481614 0.911514
150.000000 165.000000 -0.125584 0.407567 0.426476 0.921053
165.000000 165.000000 -0.222871 0.508448 0.555150 0.907012
180.000000 165.000000 -0.213491 0.305289 0.372532 0.920534
195.000000 165.000000 -0.336661 -0.013830 0.336945 0.932484
210.000000 165.000000 -0.435992 -0.019054 0.436408 0.911506
225.000000 165.000000 -0.402298 -0.215524 0.456393 0.884329
240.000000 165.000000 -0.294880 -0.452000 0.539684 0.888562
255.000000 165.000000 -0.116602 -0.605944 0.617061 0.911758
270.000000 165.000000 -0.050671 -0.812044 0.813624 0.936684
285.000000 165.000000 0.119905 -0.878302 0.886449 0.946689
300.000000 165.000000 0.324767 -0.921826 0.977362 0.932582
315.000000 165.000000 0.440613 -0.964949 1.060786 0.906311
330.000000 165.000000 0.720481 -1.045714 1.269886 0.921096
345.000000 165.000000 1.033753 -1.030125 1.459384 0.951103
360.000000 165.000000 1.230654 -0.989800 1.579308 0.934397
375.000000 165.000000 1.528098 -0.888774 1.767768 0.891910
390.000000 165.000000 1.578521 -0.747830 1.746705 0.885801
405.000000 165.000000 1.818110 -0.446786 1.872202 0.882002
420.000000 165.000000 1.904876 -0.215716 1.917052 0.933355
435.000000 165.000000 1.992011 -0.071337 1.993288 0.951513
450.000000 165.000000 1.989491 0.163451 1.996194 0.947745
465.000000 165.000000 1.955004 0.328120 1.982348 0.935159
480.000000 165.000000 1.937341 0.445259 1.987849 0.912190
15.000000 180.000000 1.034218 0.383451 1.103015 0.893767
30.000000 180.000000 1.034086 0.649213 1.220988 0.909874
45.000000 180.000000 0.846089 0.819465 1.177875 0.940382
60.000000 180.000000 0.775591 0.871415 1.166579 0.945620
75.000000 180.000000 0.615595 0.858816 1.056656 0.924626
90.000000 180.000000 0.460604 0.935435 1.042686 0.920569
105.000000 180.000000 0.372960 0.961860 1.031636 0.930511
120.000000 180.000000 0.162138 0.893912 0.908497 0.938486
135.000000 180.000000 -0.079362 0.782068 0.786085 0.926223
150.000000 180.000000 -0.172033 0.719666 0.739943 0.921449
165.000000 180.000000 -0.357444 0.689127 0.776314 0.896602
180.000000 180.000000 -0.266585 0.394987 0.476531 0.859735
195.000000 180.000000 -0.519343 0.025115 0.519950 0.886995
210.000000 180.000000 -0.665847 -0.069753 0.669490 0.913026
225.000000 180.000000 -0.608919 -0.321466 0.688565 0.871930
240.000000 180.000000 -0.478544 -0.590110 0.759760 0.835097
255.000000 180.000000 -0.294507 -0.819717 0.871017 0.909888
270.000000 180.000000 -0.141092 -1.025394 1.035055 0.959440
285.000000 180.000000 0.045489 -1.121953 1.122875 0.955807
300.000000 180.000000 0.324029 -1.204890 1.247700 0.908130
315.000000 180.000000 0.547601 -1.243522 1.358754 0.880761
330.000000 180.000000 0.832988 -1.263368 1.513264 0.917817
345.000000 180.000000 1.171754 -1.212921 1.686471 0.924636
360.000000 180.000000 1.361442 -1.144785 1.778780 0.917122
375.000000 180.000000 1.677040 -0.949606 1.927230 0.924914
390.000000 180.000000 1.808440 -0.853228 1.999613 0.936485
405.000000 180.000000 1.844331 -0.521490 1.916640 0.903878
420.000000 180.000000 2.044611 -0.226958 2.057169 0.943626
435.000000 180.000000 2.168501 -0.057915 2.169274 0.951152
450.000000 180.000000 2.173585 0.101595 2.175958 0.954124
465.000000 180.000000 2.139378 0.260532 2.155184 0.927684
480.000000 180.000000 2.132682 0.542683 2.200644 0.881972
15.000000 195.000000 1.084964 0.390345 1.153047 0.896245
30.000000 195.000000 1.119187 0.712575 1.326779 0.925079
45.000000 195.000000 0.966232 0.881874 1.308169 0.957139
60.000000 195.000000 0.919570 0.947877 1.320637 0.964142
75.000000 195.000000 0.817239 0.944411 1.248916 0.949965
90.000000 195.000000 0.650220 1.003336 1.195604 0.923647
105.000000 195.000000 0.488657 1.145988 1.245822 0.884372
120.000000 195.000000 0.142908 1.116200 1.125311 0.939050
135.000000 195.000000 -0.097352 1.078819 1.083202 0.952238
150.000000 195.000000 -0.172500 0.983479 0.998493 0.951553
165.000000 195.000000 -0.447487 0.847827 0.958674 0.896278
180.000000 195.000000 -0.618878 0.779408 0.995232 0.883764
195.000000 195.000000 -0.812148 0.185853 0.833142 0.918555
210.000000 195.000000 -0.913893 -0.073119 0.916813 0.940958
225.000000 195.000000 -0.835702 -0.460261 0.954064 0.878593
240.000000 195.000000 -0.728566 -0.718365 1.023160 0.901382
255.000000 195.000000 -0.549404 -0.919596 1.071215 0.888233
270.000000 195.000000 -0.209933 -1.109775 1.129456 0.933334
285.000000 195.000000 0.044354 -1.351454 1.352182 0.911091
300.000000 195.000000 0.332243 -1.698072 1.730270 0.893511
315.000000 195.000000 0.683904 -1.649625 1.785773 0.898634
330.000000 195.000000 0.872920 -1.566430 1.793235 0.897759
345.000000 195.000000 1.268459 -1.349465 1.852038 0.898317
360.000000 195.000000 1.529971 -1.235382 1.966463 0.887595
375.000000 195.000000 1.830105 -1.032960 2.101497 0.928957
390.000000 195.000000 2.005102 -0.911834 2.202698 0.954364
405.000000 195.000000 2.084697 -0.719761 2.205452 0.946332
420.000000 195.000000 2.281282 -0.338340 2.306235 0.907764
435.000000 195.000000 2.330312 -0.142147 2.334643 0.908768
450.000000 195.000000 2.314080 0.089006 2.315791 0.922373
465.000000 195.000000 2.285299 0.315960 2.307038 0.896892
480.000000 195.000000 2.274884 0.607017 2.354478 0.875656
15.000000 210.000000 1.179243 0.401284 1.245649 0.878926
30.000000 210.000000 1.196817 0.720793 1.397109 0.912125
45.000000 210.000000 1.152332 0.859225 1.437407 0.932135
60.000000 210.000000 1.122015 1.010267 1.509820 0.941964
75.000000 210.000000 0.968625 1.119536 1.480404 0.948008
90.000000 210.000000 0.810948 1.263579 1.501422 0.907555
105.000000 210.000000 0.562015 1.453443 1.558319 0.855406
120.000000 210.000000 0.198152 1.340350 1.354918 0.911951
135.000000 210.000000 -0.083811 1.238061 1.240895 0.944986
150.000000 210.000000 -0.198159 1.096354 1.114118 0.937575
165.000000 210.000000 -0.480973 1.035065 1.141356 0.899290
180.000000 210.000000 -0.625800 0.818448 1.030283 0.895335
195.000000 210.000000 -0.802283 0.341027 0.871755 0.874715
210.000000 210.000000 -1.017957 -0.119323 1.024927 0.949014
225.000000 210.000000 -0.911371 -0.510176 1.044451 0.895332
240.000000 210.000000 -0.773469 -0.904954 1.190461 0.943191
255.000000 210.000000 -0.617939 -1.061207 1.228010 0.914707
270.000000 210.000000 -0.225709 -1.341478 1.360334 0.890550
285.000000 210.000000 0.153450 -1.810516 1.817007 0.893308
300.000000 210.000000 0.436694 -1.966154 2.014067 0.900513
315.000000 210.000000 0.733621 -1.864686 2.003810 0.914923
330.000000 210.000000 1.077968 -1.817271 2.112934 0.917117
345.000000 210.000000 1.443840 -1.641129 2.185859 0.869708
360.000000 210.000000 1.791310 -1.376193 2.258915 0.892971
375.000000 210.000000 2.038780 -1.220988 2.376434 0.921540
390.000000 210.000000 2.196688 -1.044554 2.432392 0.931003
405.000000 210.000000 2.513579 -0.791141 2.635143 0.888802
420.000000 210.000000 2.712775 -0.348474 2.735065 0.904684
435.000000 210.000000 2.761622 -0.108255 2.763743 0.915558
450.000000 210.000000 2.720459 0.173978 2.726017 0.904318
465.000000 210.000000 2.722270 0.589894 2.785449 0.877864
480.000000 210.000000 2.521240 0.808927 2.647832 0.869944
15.000000 225.000000 1.651692 0.435527 1.708148 0.851811
30.000000 225.000000 1.610582 0.681050 1.748657 0.868407
45.000000 225.000000 1.560277 0.859802 1.781495 0.875510
60.000000 225.000000 1.503234 1.084153 1.853403 0.877057
75.000000 225.000000 1.319540 1.255528 1.821410 0.875001
90.000000 225.000000 1.231166 1.552028 1.981050 0.875156
105.000000 225.000000 1.010016 1.735994 2.008434 0.930965
120.000000 225.000000 0.829978 1.757827 1.943919 0.909124
135.000000 225.000000 0.314008 1.620445 1.650589 0.888809
150.000000 225.000000 0.001714 1.491991 1.491992 0.884798
165.000000 225.000000 -0.244838 1.259792 1.283364 0.904829
180.000000 225.000000 -0.342362 0.872526 0.937291 0.868672
195.000000 225.000000 -0.640250 0.230410 0.680447 0.848529
210.000000 225.000000 -0.787115 -0.155826 0.802391 0.897466
225.000000 225.000000 -0.626453 -0.488648 0.794494 0.835874
240.000000 225.000000 -0.407493 -0.914869 1.001517 0.871997
255.000000 225.000000 0.013255 -1.461568 1.461628 0.873433
270.000000 225.000000 0.353062 -1.728381 1.764073 0.866005
285.000000 225.000000 0.445694 -1.945231 1.995637 0.860592
300.000000 225.000000 0.792692 -2.059215 2.206520 0.903715
315.000000 225.000000 1.058047 -2.028380 2.287747 0.910901
330.000000 225.000000 1.533930 -1.999181 2.519854 0.893903
345.000000 225.000000 1.798861 -1.821338 2.559917 0.906409
360.000000 225.000000 2.050294 -1.661412 2.638939 0.893226
375.000000 225.000000 2.453116 -1.494047 2.872273 0.861227
390.000000 225.000000 2.690852 -1.097723 2.906145 0.906398
405.000000 225.000000 2.893749 -0.774448 2.995589 0.922451
420.000000 225.000000 2.957453 -0.400252 2.984415 0.908613
435.000000 225.000000 3.035270 -0.077315 3.036255 0.943135
450.000000 225.000000 3.011962 0.159055 3.016159 0.940604
465.000000 225.000000 3.068786 0.580030 3.123120 0.909773
480.000000 225.000000 2.940691 1.078744 3.132307 0.925625
15.000000 240.000000 1.983822 0.318472 2.009222 0.873318
30.000000 240.000000 2.103928 0.556040 2.176165 0.851746
45.000000 240.000000 2.003057 0.850331 2.176075 0.887453
60.000000 240.000000 1.993795 1.176004 2.314779 0.893968
75.000000 240.000000 1.841917 1.390635 2.307927 0.855306
90.000000 240.000000 1.664370 1.642708 2.338507 0.844993
105.000000 240.000000 1.569417 1.848936 2.425208 0.848078
120.000000 240.000000 1.770575 1.952019 2.635397 0.886002
135.000000 240.000000 1.776752 2.027934 2.696176 0.868325
150.000000 240.000000 1.262399 1.795312 2.194720 0.809428
165.000000 240.000000 0.500342 1.487032 1.568951 0.730464
180.000000 240.000000 0.301803 0.821321 0.875016 0.754049
195.000000 240.000000 0.064663 0.282758 0.290057 0.724051
210.000000 240.000000 0.014516 -0.171659 0.172272 0.712685
225.000000 240.000000 0.311697 -0.443803 0.542325 0.662441
240.000000 240.000000 0.608403 -1.270316 1.408495 0.649087
255.000000 240.000000 0.859457 -1.875870 2.063384 0.699719
270.000000 240.000000 0.912490 -2.066378 2.258883 0.783720
285.000000 240.000000 1.219044 -2.136337 2.459675 0.790496
300.000000 240.000000 1.767395 -2.273781 2.879890 0.811710
315.000000 240.000000 2.008709 -2.372242 3.108447 0.824031
330.000000 240.000000 2.199847 -2.346036 3.216086 0.861327
345.000000 240.000000 2.359725 -2.168868 3.205041 0.843127
360.000000 240.000000 2.598852 -1.728506 3.121180 0.846387
375.000000 240.000000 2.899241 -1.420073 3.228344 0.872484
390.000000 240.000000 3.037876 -1.230969 3.277801 0.910561
405.000000 240.000000 3.216046 -0.876803 3.333427 0.893705
420.000000 240.000000 3.399323 -0.505399 3.436688 0.834206
435.000000 240.000000 3.505204 -0.012401 3.505226 0.860339
450.000000 240.000000 3.495630 0.176801 3.500099 0.856730
465.000000 240.000000 3.630181 0.660706 3.689817 0.837473
480.000000 240.000000 3.372287 1.330492 3.625263 0.854539
15.000000 255.000000 2.765490 0.442464 2.800662 0.806407
30.000000 255.000000 2.907291 0.870988 3.034956 0.889251
45.000000 255.000000 2.859924 1.120518 3.071600 0.841591
60.000000 255.000000 3.022374 1.127546 3.225849 0.819496